<VTKFile type="UnstructuredGrid" version="1.0">
<UnstructuredGrid>
<Piece NumberOfPoints="9" NumberOfCells="3">
<Points>
<DataArray type="Float64" NumberOfComponents="3" format="ascii">
4.721767 0.461538 10.923076
8.952537 0.461538 2.461538
3.461538 5.952537 2.461538
3.461538 2.981997 10.923076
4.721767 0.461538 10.923076
3.461538 5.952537 2.461538
4.721767 0.461538 10.923076
3.461538 2.981997 10.923076
3.461538 0.461538 12.183305
</DataArray>
</Points>
<Cells>
<DataArray type="Int32" Name="offsets" format="ascii">
0 3 6 
</DataArray>
<DataArray type="Int32" Name="connectivity" format="ascii">
0 1 2
3 4 5
6 7 8
</DataArray>
<DataArray type="UInt8" Name="types" format="ascii">
5 5 5 
</DataArray>
</Cells>
<PointData>
<DataArray type = "Float32" Name="Density" format="ascii">
-53950260.000000 -107900520.000000 -107900520.000000 -80925392.000000 -53950260.000000 -107900520.000000 -53950260.000000 -80925392.000000 -53950260.000000 
</DataArray>
</PointData>
</Piece>
</UnstructuredGrid>
</VTKFile>