<VTKFile type="UnstructuredGrid" version="1.0">
<UnstructuredGrid>
<Piece NumberOfPoints="65487" NumberOfCells="21829">
<Points>
<DataArray type="Float64" NumberOfComponents="3" format="ascii">
0.058931 0.023945 0.013187
0.058931 0.048520 0.013187
0.034356 0.023945 0.013208
0.058931 0.048520 0.013187
0.034356 0.048520 0.013196
0.034356 0.023945 0.013208
0.058931 0.048520 0.013187
0.058931 0.073095 0.013168
0.034356 0.048520 0.013196
0.058931 0.073095 0.013168
0.034356 0.073095 0.013178
0.034356 0.048520 0.013196
0.058931 0.073095 0.013168
0.058931 0.097670 0.013171
0.034356 0.073095 0.013178
0.058931 0.097670 0.013171
0.034356 0.097670 0.013180
0.034356 0.073095 0.013178
0.058931 0.097670 0.013171
0.058931 0.122244 0.013179
0.034356 0.097670 0.013180
0.058931 0.122244 0.013179
0.034356 0.122244 0.013180
0.034356 0.097670 0.013180
0.058931 0.122244 0.013179
0.058931 0.146819 0.013153
0.034356 0.122244 0.013180
0.058931 0.146819 0.013153
0.034356 0.146819 0.013178
0.034356 0.122244 0.013180
0.058931 0.146819 0.013153
0.058931 0.171394 0.012975
0.034356 0.146819 0.013178
0.058931 0.171394 0.012975
0.034356 0.171394 0.013111
0.034356 0.146819 0.013178
0.058931 0.171394 0.012975
0.058931 0.195968 0.012137
0.034356 0.171394 0.013111
0.058931 0.195968 0.012137
0.034356 0.195968 0.012890
0.034356 0.171394 0.013111
0.058931 0.216648 -0.968337
0.050784 0.220543 -0.943763
0.058931 0.216821 -0.943763
0.054849 0.220543 -0.968337
0.050784 0.220543 -0.943763
0.058931 0.216648 -0.968337
0.058931 0.216821 -0.943763
0.050431 0.220543 -0.919188
0.058931 0.213618 -0.919188
0.050784 0.220543 -0.943763
0.050431 0.220543 -0.919188
0.058931 0.216821 -0.943763
0.058931 0.213618 -0.919188
0.054670 0.220543 -0.894613
0.058931 0.212913 -0.894613
0.050431 0.220543 -0.919188
0.054670 0.220543 -0.894613
0.058931 0.213618 -0.919188
0.058931 0.212913 -0.894613
0.054659 0.220543 -0.870038
0.058931 0.212913 -0.870038
0.054670 0.220543 -0.894613
0.054659 0.220543 -0.870038
0.058931 0.212913 -0.894613
0.058931 0.212913 -0.870038
0.054860 0.220543 -0.845464
0.058931 0.211822 -0.845464
0.054659 0.220543 -0.870038
0.054860 0.220543 -0.845464
0.058931 0.212913 -0.870038
0.058931 0.211822 -0.845464
0.054751 0.220543 -0.820889
0.058931 0.216113 -0.820889
0.054860 0.220543 -0.845464
0.054751 0.220543 -0.820889
0.058931 0.211822 -0.845464
0.058931 0.216113 -0.820889
0.054333 0.220543 -0.796314
0.058931 0.216075 -0.796314
0.054751 0.220543 -0.820889
0.054333 0.220543 -0.796314
0.058931 0.216113 -0.820889
0.058931 0.216075 -0.796314
0.054830 0.220543 -0.771739
0.058931 0.217591 -0.771739
0.054333 0.220543 -0.796314
0.054830 0.220543 -0.771739
0.058931 0.216075 -0.796314
0.058931 0.217591 -0.771739
0.054958 0.220543 -0.747165
0.058931 0.216117 -0.747165
0.054830 0.220543 -0.771739
0.054958 0.220543 -0.747165
0.058931 0.217591 -0.771739
0.058931 0.216117 -0.747165
0.054629 0.220543 -0.722590
0.058931 0.216184 -0.722590
0.054958 0.220543 -0.747165
0.054629 0.220543 -0.722590
0.058931 0.216117 -0.747165
0.058931 0.216184 -0.722590
0.054773 0.220543 -0.698015
0.058931 0.217749 -0.698015
0.054629 0.220543 -0.722590
0.054773 0.220543 -0.698015
0.058931 0.216184 -0.722590
0.058931 0.217749 -0.698015
0.055088 0.220543 -0.673441
0.058931 0.216465 -0.673441
0.054773 0.220543 -0.698015
0.055088 0.220543 -0.673441
0.058931 0.217749 -0.698015
0.058931 0.216465 -0.673441
0.054778 0.220543 -0.648866
0.058931 0.216025 -0.648866
0.055088 0.220543 -0.673441
0.054778 0.220543 -0.648866
0.058931 0.216465 -0.673441
0.058931 0.216025 -0.648866
0.054260 0.220543 -0.624291
0.058931 0.217884 -0.624291
0.054778 0.220543 -0.648866
0.054260 0.220543 -0.624291
0.058931 0.216025 -0.648866
0.058931 0.217884 -0.624291
0.054385 0.220543 -0.599716
0.058931 0.218647 -0.599716
0.054260 0.220543 -0.624291
0.054385 0.220543 -0.599716
0.058931 0.217884 -0.624291
0.058931 0.218647 -0.599716
0.054413 0.220543 -0.575142
0.058931 0.217918 -0.575142
0.054385 0.220543 -0.599716
0.054413 0.220543 -0.575142
0.058931 0.218647 -0.599716
0.058931 0.217918 -0.575142
0.050014 0.220543 -0.550567
0.058931 0.217886 -0.550567
0.054413 0.220543 -0.575142
0.050014 0.220543 -0.550567
0.058931 0.217918 -0.575142
0.058931 0.217886 -0.550567
0.050014 0.220543 -0.550567
0.058931 0.220543 -0.538823
0.058931 0.220543 -0.488587
0.054285 0.220543 -0.476843
0.058931 0.218754 -0.476843
0.058931 0.218754 -0.476843
0.054627 0.220543 -0.452268
0.058931 0.218044 -0.452268
0.054285 0.220543 -0.476843
0.054627 0.220543 -0.452268
0.058931 0.218754 -0.476843
0.058931 0.218044 -0.452268
0.054349 0.220543 -0.427693
0.058931 0.216192 -0.427693
0.054627 0.220543 -0.452268
0.054349 0.220543 -0.427693
0.058931 0.218044 -0.452268
0.058931 0.216192 -0.427693
0.054633 0.220543 -0.403119
0.058931 0.210437 -0.403119
0.054349 0.220543 -0.427693
0.054633 0.220543 -0.403119
0.058931 0.216192 -0.427693
0.058931 0.210437 -0.403119
0.054936 0.220543 -0.378544
0.058931 0.211357 -0.378544
0.054633 0.220543 -0.403119
0.054936 0.220543 -0.378544
0.058931 0.210437 -0.403119
0.058931 0.211357 -0.378544
0.050788 0.220543 -0.353969
0.058931 0.216151 -0.353969
0.054936 0.220543 -0.378544
0.050788 0.220543 -0.353969
0.058931 0.211357 -0.378544
0.058931 0.216151 -0.353969
0.050788 0.220543 -0.353969
0.058931 0.220543 -0.343699
0.058931 0.220543 -0.290515
0.054584 0.220543 -0.280245
0.058931 0.218054 -0.280245
0.058931 0.218054 -0.280245
0.054103 0.220543 -0.255670
0.058931 0.217968 -0.255670
0.054584 0.220543 -0.280245
0.054103 0.220543 -0.255670
0.058931 0.218054 -0.280245
0.058931 0.217968 -0.255670
0.054237 0.220543 -0.231096
0.058931 0.216731 -0.231096
0.054103 0.220543 -0.255670
0.054237 0.220543 -0.231096
0.058931 0.217968 -0.255670
0.058931 0.216731 -0.231096
0.054627 0.220543 -0.206521
0.058931 0.216689 -0.206521
0.054237 0.220543 -0.231096
0.054627 0.220543 -0.206521
0.058931 0.216731 -0.231096
0.058931 0.216689 -0.206521
0.054584 0.220543 -0.181946
0.058931 0.217698 -0.181946
0.054627 0.220543 -0.206521
0.054584 0.220543 -0.181946
0.058931 0.216689 -0.206521
0.058931 0.217698 -0.181946
0.053762 0.220543 -0.157372
0.058931 0.217595 -0.157372
0.054584 0.220543 -0.181946
0.053762 0.220543 -0.157372
0.058931 0.217698 -0.181946
0.058931 0.217595 -0.157372
0.054339 0.220543 -0.132797
0.058931 0.217813 -0.132797
0.053762 0.220543 -0.157372
0.054339 0.220543 -0.132797
0.058931 0.217595 -0.157372
0.058931 0.217813 -0.132797
0.054628 0.220543 -0.108222
0.058931 0.218584 -0.108222
0.054339 0.220543 -0.132797
0.054628 0.220543 -0.108222
0.058931 0.217813 -0.132797
0.058931 0.218584 -0.108222
0.054517 0.220543 -0.083647
0.058931 0.217950 -0.083647
0.054628 0.220543 -0.108222
0.054517 0.220543 -0.083647
0.058931 0.218584 -0.108222
0.058931 0.217950 -0.083647
0.054517 0.220543 -0.083647
0.058931 0.220543 -0.073358
0.058931 0.195968 0.012137
0.058931 0.220543 0.006792
0.034356 0.195968 0.012890
0.058931 0.220543 0.006792
0.034356 0.220543 0.010757
0.034356 0.195968 0.012890
0.050784 0.220543 -0.943763
0.054849 0.220543 -0.968337
0.034356 0.241036 -0.968337
0.034356 0.236971 -0.943763
0.050784 0.220543 -0.943763
0.034356 0.241036 -0.968337
0.050431 0.220543 -0.919188
0.050784 0.220543 -0.943763
0.034356 0.236971 -0.943763
0.034356 0.236618 -0.919188
0.050431 0.220543 -0.919188
0.034356 0.236971 -0.943763
0.054670 0.220543 -0.894613
0.050431 0.220543 -0.919188
0.034356 0.236618 -0.919188
0.034356 0.240857 -0.894613
0.054670 0.220543 -0.894613
0.034356 0.236618 -0.919188
0.054659 0.220543 -0.870038
0.054670 0.220543 -0.894613
0.034356 0.240857 -0.894613
0.034356 0.240846 -0.870038
0.054659 0.220543 -0.870038
0.034356 0.240857 -0.894613
0.054860 0.220543 -0.845464
0.054659 0.220543 -0.870038
0.034356 0.240846 -0.870038
0.034356 0.241047 -0.845464
0.054860 0.220543 -0.845464
0.034356 0.240846 -0.870038
0.054751 0.220543 -0.820889
0.054860 0.220543 -0.845464
0.034356 0.241047 -0.845464
0.034356 0.240938 -0.820889
0.054751 0.220543 -0.820889
0.034356 0.241047 -0.845464
0.054333 0.220543 -0.796314
0.054751 0.220543 -0.820889
0.034356 0.240938 -0.820889
0.034356 0.240521 -0.796314
0.054333 0.220543 -0.796314
0.034356 0.240938 -0.820889
0.054830 0.220543 -0.771739
0.054333 0.220543 -0.796314
0.034356 0.240521 -0.796314
0.034356 0.241018 -0.771739
0.054830 0.220543 -0.771739
0.034356 0.240521 -0.796314
0.054958 0.220543 -0.747165
0.054830 0.220543 -0.771739
0.034356 0.241018 -0.771739
0.034356 0.241145 -0.747165
0.054958 0.220543 -0.747165
0.034356 0.241018 -0.771739
0.054629 0.220543 -0.722590
0.054958 0.220543 -0.747165
0.034356 0.241145 -0.747165
0.034356 0.240816 -0.722590
0.054629 0.220543 -0.722590
0.034356 0.241145 -0.747165
0.054773 0.220543 -0.698015
0.054629 0.220543 -0.722590
0.034356 0.240816 -0.722590
0.034356 0.240960 -0.698015
0.054773 0.220543 -0.698015
0.034356 0.240816 -0.722590
0.055088 0.220543 -0.673441
0.054773 0.220543 -0.698015
0.034356 0.240960 -0.698015
0.034356 0.241275 -0.673441
0.055088 0.220543 -0.673441
0.034356 0.240960 -0.698015
0.054778 0.220543 -0.648866
0.055088 0.220543 -0.673441
0.034356 0.241275 -0.673441
0.034356 0.240965 -0.648866
0.054778 0.220543 -0.648866
0.034356 0.241275 -0.673441
0.054260 0.220543 -0.624291
0.054778 0.220543 -0.648866
0.034356 0.240965 -0.648866
0.034356 0.240448 -0.624291
0.054260 0.220543 -0.624291
0.034356 0.240965 -0.648866
0.054385 0.220543 -0.599716
0.054260 0.220543 -0.624291
0.034356 0.240448 -0.624291
0.034356 0.240573 -0.599716
0.054385 0.220543 -0.599716
0.034356 0.240448 -0.624291
0.054413 0.220543 -0.575142
0.054385 0.220543 -0.599716
0.034356 0.240573 -0.599716
0.034356 0.240601 -0.575142
0.054413 0.220543 -0.575142
0.034356 0.240573 -0.599716
0.050014 0.220543 -0.550567
0.054413 0.220543 -0.575142
0.034356 0.240601 -0.575142
0.034356 0.236202 -0.550567
0.050014 0.220543 -0.550567
0.034356 0.240601 -0.575142
0.058931 0.220543 -0.538823
0.050014 0.220543 -0.550567
0.034356 0.236202 -0.550567
0.058931 0.220543 -0.538823
0.034356 0.236202 -0.550567
0.058931 0.233373 -0.525992
[...]
<PointData>
<DataArray type = "Float32" Name="Density" format="ascii">
251.769730 251.726379 255.415451 251.726379 253.302399 255.415451 251.726379 248.482193 253.302399 248.482193 250.170731 253.302399 248.482193 248.914017 250.170731 248.914017 250.483429 250.170731 248.914017 250.351379 250.483429 250.351379 250.465317 250.483429 250.351379 246.000031 250.465317 246.000031 250.135498 250.465317 246.000031 219.826462 250.135498 219.826462 239.351837 250.135498 219.826462 146.585922 239.351837 146.585922 209.233765 239.351837 94.627808 45.246216 99.042664 90.303909 45.246216 94.627808 99.042664 43.369801 53.229202 45.246216 43.369801 99.042664 53.229202 86.513977 48.314369 43.369801 86.513977 53.229202 48.314369 86.293213 48.314369 86.513977 86.293213 48.314369 48.314369 90.552956 42.267990 86.293213 90.552956 48.314369 42.267990 88.191055 83.199753 90.552956 88.191055 42.267990 83.199753 80.185043 82.491135 88.191055 80.185043 83.199753 82.491135 89.903961 124.851303 80.185043 89.903961 82.491135 124.851303 92.790863 83.291924 89.903961 92.790863 124.851303 83.291924 85.692955 84.567146 92.790863 85.692955 83.291924 84.567146 88.660439 131.946136 85.692955 88.660439 84.567146 131.946136 95.929100 90.395882 88.660439 95.929100 131.946136 90.395882 88.770561 81.589294 95.929100 88.770561 90.395882 81.589294 78.932449 138.625046 88.770561 78.932449 81.589294 138.625046 81.101593 194.449844 78.932449 81.101593 138.625046 194.449844 81.606171 140.438751 81.101593 81.606171 194.449844 140.438751 41.343277 138.745117 81.606171 41.343277 140.438751 138.745117 41.343277 31.386908 31.386908 79.347458 206.024597 206.024597 85.659454 147.480988 79.347458 85.659454 206.024597 147.480988 80.454498 84.727158 85.659454 80.454498 147.480988 84.727158 85.773056 36.476681 80.454498 85.773056 84.727158 36.476681 92.270874 40.128918 85.773056 92.270874 36.476681 40.128918 45.272774 83.925049 92.270874 45.272774 40.128918 83.925049 45.272774 35.893768 35.893768 84.808037 148.078674 148.078674 76.362091 143.143799 84.808037 76.362091 148.078674 143.143799 78.536407 96.689575 76.362091 78.536407 143.143799 96.689575 85.663208 95.645081 78.536407 85.663208 96.689575 95.645081 84.811325 129.576157 85.663208 84.811325 95.645081 129.576157 71.314529 125.051460 84.811325 71.314529 129.576157 125.051460 80.279480 135.024612 71.314529 80.279480 125.051460 135.024612 85.682953 188.188461 80.279480 85.682953 135.024612 188.188461 83.524452 142.135925 85.682953 83.524452 188.188461 142.135925 83.524452 35.824017 146.585922 46.902340 209.233765 46.902340 94.653137 209.233765 45.246216 90.303909 90.303909 45.246216 45.246216 90.303909 43.369801 45.246216 45.246216 43.369801 43.369801 45.246216 86.513977 43.369801 43.369801 86.513977 86.513977 43.369801 86.293213 86.513977 86.513977 86.293213 86.293213 86.513977 90.552956 86.293213 86.293213 90.552956 90.552956 86.293213 88.191055 90.552956 90.552956 88.191055 88.191055 90.552956 80.185043 88.191055 88.191055 80.185043 80.185043 88.191055 89.903961 80.185043 80.185043 89.903961 89.903961 80.185043 92.790863 89.903961 89.903961 92.790863 92.790863 89.903961 85.692955 92.790863 92.790863 85.692955 85.692955 92.790863 88.660439 85.692955 85.692955 88.660439 88.660439 85.692955 95.929100 88.660439 88.660439 95.929100 95.929100 88.660439 88.770561 95.929100 95.929100 88.770561 88.770561 95.929100 78.932449 88.770561 88.770561 78.932449 78.932449 88.770561 81.101593 78.932449 78.932449 81.101593 81.101593 78.932449 81.606171 81.101593 81.101593 81.606171 81.606171 81.101593 41.343277 81.606171 81.606171 41.343277 41.343277 81.606171 31.386908 41.343277 41.343277 31.386908 41.343277 31.386908 31.386908 41.343277 31.386908 31.386908 31.386908 31.386908 31.386908 66.754448 31.386908 79.347458 31.386908 31.386908 79.347458 31.386908 79.347458 79.347458 31.386908 66.754448 85.659454 79.347458 79.347458 85.659454 85.659454 79.347458 80.454498 85.659454 85.659454 80.454498 80.454498 85.659454 85.773056 80.454498 80.454498 85.773056 85.773056 80.454498 92.270874 85.773056 85.773056 92.270874 92.270874 85.773056 45.272774 92.270874 92.270874 45.272774 45.272774 92.270874 35.893768 45.272774 45.272774 35.893768 45.272774 35.893768 35.893768 45.272774 77.808411 35.893768 77.808411 35.893768 77.808411 125.947464 35.893768 84.808037 35.893768 35.893768 84.808037 35.893768 84.808037 84.808037 35.893768 125.947464 76.362091 84.808037 84.808037 76.362091 76.362091 84.808037 78.536407 76.362091 76.362091 78.536407 78.536407 76.362091 85.663208 78.536407 78.536407 85.663208 85.663208 78.536407 84.811325 85.663208 85.663208 84.811325 84.811325 85.663208 71.314529 84.811325 84.811325 71.314529 71.314529 84.811325 80.279480 71.314529 71.314529 80.279480 80.279480 71.314529 85.682953 80.279480 80.279480 85.682953 85.682953 80.279480 83.524452 85.682953 85.682953 83.524452 83.524452 85.682953 35.824017 83.524452 83.524452 35.824017 83.524452 35.824017 35.824017 83.524452 123.802658 35.824017 123.802658 82.726357 123.802658 173.657944 82.726357 82.726357 173.657944 46.902340 173.657944 94.653137 46.902340 46.902340 94.653137 94.653137 46.902340 46.902340 94.653137 254.078522 252.976135 251.769730 252.976135 251.726379 251.769730 252.976135 249.303741 251.726379 249.303741 248.482193 251.726379 249.303741 249.498978 248.482193 249.498978 248.914017 248.482193 249.498978 250.861145 248.914017 250.861145 250.351379 248.914017 250.861145 236.498489 250.351379 236.498489 246.000031 250.351379 236.498489 155.680359 246.000031 155.680359 219.826462 246.000031 227.211838 99.042664 225.642014 94.627808 99.042664 227.211838 225.642014 53.229202 217.258499 99.042664 53.229202 225.642014 217.258499 48.314369 221.086197 53.229202 48.314369 217.258499 221.086197 48.314369 213.803040 48.314369 48.314369 221.086197 213.803040 42.267990 212.858932 48.314369 42.267990 213.803040 212.858932 83.199753 215.770966 42.267990 83.199753 212.858932 215.770966 82.491135 214.464523 83.199753 82.491135 215.770966 214.464523 82.491135 34.946915 36.714371 90.395882 228.945129 228.945129 81.589294 170.872986 90.395882 81.589294 228.945129 170.872986 81.589294 52.019455 45.233879 84.727158 214.181244 214.181244 36.476681 217.539902 84.727158 36.476681 214.181244 217.539902 40.128918 217.888123 36.476681 40.128918 217.539902 217.888123 83.925049 204.991150 40.128918 83.925049 217.888123 204.991150 127.154541 211.530029 83.925049 127.154541 204.991150 211.530029 135.262024 217.764374 127.154541 135.262024 211.530029 217.764374 135.262024 44.249695 44.249695 96.689575 224.281891 224.281891 95.645081 212.333954 96.689575 95.645081 224.281891 212.333954 95.645081 39.321754 155.680359 45.168213 219.826462 45.168213 146.585922 219.826462 99.042664 94.627808 94.627808 99.042664 99.042664 94.627808 53.229202 99.042664 99.042664 53.229202 53.229202 99.042664 48.314369 53.229202 53.229202 48.314369 48.314369 53.229202 48.314369 48.314369 48.314369 48.314369 48.314369 48.314369 42.267990 48.314369 48.314369 42.267990 42.267990 48.314369 83.199753 42.267990 42.267990 83.199753 83.199753 42.267990 82.491135 83.199753 83.199753 82.491135 82.491135 83.199753 34.946915 82.491135 82.491135 34.946915 82.491135 34.946915 34.946915 82.491135 124.851303 34.946915 124.851303 34.946915 124.851303 83.291924 34.946915 34.946915 83.291924 36.714371 83.291924 84.567146 36.714371 36.714371 84.567146 36.714371 84.567146 131.946136 36.714371 90.395882 36.714371 36.714371 90.395882 36.714371 90.395882 90.395882 36.714371 131.946136 81.589294 90.395882 90.395882 81.589294 81.589294 90.395882 52.019455 81.589294 81.589294 52.019455 81.589294 52.019455 52.019455 81.589294 138.625046 52.019455 138.625046 90.869858 138.625046 194.449844 90.869858 90.869858 194.449844 38.850407 194.449844 140.438751 38.850407 38.850407 140.438751 45.868515 140.438751 138.745117 45.868515 31.386908 138.745117 31.386908 31.386908 45.868515 138.745117 45.868515 45.868515 138.745117 45.868515 31.386908 50.458374 31.386908 31.386908 45.868515 31.386908 50.458374 31.386908 31.386908 206.024597 50.458374 206.024597 95.692253 50.458374 95.692253 206.024597 45.233879 206.024597 147.480988 45.233879 84.727158 45.233879 45.233879 84.727158 45.233879 84.727158 84.727158 45.233879 147.480988 36.476681 84.727158 84.727158 36.476681 36.476681 84.727158 40.128918 36.476681 36.476681 40.128918 40.128918 36.476681 83.925049 40.128918 40.128918 83.925049 83.925049 40.128918 83.925049 35.893768 35.893768 83.925049 35.893768 83.925049 83.925049 35.893768 127.154541 127.154541 35.893768 135.262024 135.262024 35.893768 35.893768 44.249695 148.078674 44.249695 44.249695 35.893768 148.078674 44.249695 135.262024 35.893768 35.893768 35.893768 148.078674 44.249695 148.078674 44.249695 148.078674 143.143799 44.249695 96.689575 44.249695 44.249695 96.689575 44.249695 96.689575 96.689575 44.249695 143.143799 95.645081 96.689575 96.689575 95.645081 95.645081 96.689575 39.321754 95.645081 95.645081 39.321754 95.645081 39.321754 39.321754 95.645081 129.576157 39.321754 129.576157 39.321754 129.576157 125.051460 39.321754 39.321754 125.051460 40.750595 125.051460 135.024612 40.750595 40.750595 135.024612 78.383102 135.024612 188.188461 78.383102 78.383102 188.188461 37.632504 188.188461 142.135925 37.632504 35.824017 142.135925 35.824017 35.824017 45.025455 142.135925 45.025455 37.632504 142.135925 45.025455 82.726357 90.193665 35.824017 82.726357 45.025455 90.193665 46.902340 45.168213 82.726357 46.902340 90.193665 45.168213 46.902340 46.902340 45.168213 46.902340 45.168213 45.168213 46.902340 146.585922 31.386908 31.386908 31.386908 31.386908 31.386908 31.386908 31.386908 31.386908 31.386908 31.386908 31.386908 31.386908 35.893768 35.893768 35.893768 35.893768 35.893768 35.893768 35.893768 35.893768 35.893768 35.893768 35.893768 35.893768 35.824017 35.824017 35.824017 82.726357 35.824017 35.824017 82.726357 82.726357 35.824017 46.902340 82.726357 82.726357 46.902340 46.902340 82.726357 46.902340 46.902340 46.902340 252.214630 253.234650 254.078522 253.234650 252.976135 254.078522 253.234650 250.080322 252.976135 250.080322 249.303741 252.976135 250.080322 250.327057 249.303741 250.327057 249.498978 249.303741 250.327057 250.622864 249.498978 250.622864 250.861145 249.498978 250.622864 230.581238 250.861145 230.581238 236.498489 250.861145 230.581238 105.326408 236.498489 105.326408 155.680359 236.498489 223.240479 227.211838 217.559967 227.211838 225.642014 217.559967 217.559967 225.642014 204.955353 225.642014 217.258499 204.955353 204.955353 217.258499 205.124847 217.258499 221.086197 205.124847 205.124847 221.086197 204.779022 221.086197 213.803040 204.779022 204.779022 213.803040 207.646545 213.803040 212.858932 207.646545 207.646545 212.858932 154.060333 212.858932 215.770966 154.060333 154.060333 215.770966 155.944962 215.770966 214.464523 155.944962 34.946915 214.464523 34.946915 34.946915 161.356201 214.464523 161.356201 155.944962 214.464523 161.356201 34.946915 158.993011 34.946915 34.946915 161.356201 158.993011 36.714371 217.690750 34.946915 36.714371 158.993011 217.690750 36.714371 219.214462 36.714371 36.714371 217.690750 36.714371 219.214462 36.714371 36.714371 228.945129 219.214462 228.945129 219.547638 219.214462 219.547638 228.945129 164.985443 228.945129 170.872986 164.985443 52.019455 170.872986 52.019455 52.019455 104.595512 170.872986 104.595512 164.985443 170.872986 104.595512 90.869858 159.153778 52.019455 90.869858 104.595512 159.153778 38.850407 216.235031 90.869858 38.850407 159.153778 216.235031 45.868515 215.959412 38.850407 45.868515 216.235031 215.959412 45.868515 206.047073 45.868515 45.868515 215.959412 206.047073 50.458374 207.885620 45.868515 50.458374 206.047073 207.885620 95.692253 213.579803 50.458374 95.692253 207.885620 213.579803 45.233879 214.257904 95.692253 45.233879 213.579803 45.233879 214.257904 45.233879 45.233879 214.181244 214.257904 214.181244 213.023621 214.257904 213.023621 214.181244 223.967819 214.181244 217.539902 223.967819 223.967819 217.539902 225.660126 217.539902 217.888123 225.660126 225.660126 217.888123 205.054199 217.888123 204.991150 205.054199 205.054199 204.991150 206.043610 204.991150 211.530029 206.043610 206.043610 211.530029 210.659729 211.530029 217.764374 210.659729 44.249695 217.764374 44.249695 44.249695 216.451416 217.764374 216.451416 210.659729 217.764374 216.451416 44.249695 214.147369 44.249695 44.249695 216.451416 44.249695 214.147369 44.249695 44.249695 224.281891 214.147369 224.281891 214.416779 214.147369 214.416779 224.281891 204.599380 224.281891 212.333954 204.599380 39.321754 212.333954 39.321754 39.321754 195.507538 212.333954 195.507538 204.599380 212.333954 195.507538 39.321754 215.630920 39.321754 39.321754 195.507538 215.630920 40.750595 224.536865 39.321754 40.750595 215.630920 224.536865 78.383102 213.467880 40.750595 78.383102 224.536865 213.467880 37.632504 200.548615 78.383102 37.632504 213.467880 200.548615 45.025455 149.928909 37.632504 45.025455 200.548615 149.928909 90.193665 156.807587 45.025455 90.193665 149.928909 156.807587 45.168213 105.326408 90.193665 45.168213 156.807587 105.326408 45.168213 45.168213 105.326408 45.168213 105.326408 105.326408 45.168213 155.680359 34.946915 34.946915 34.946915 34.946915 34.946915 34.946915 34.946915 34.946915 34.946915 36.714371 34.946915 34.946915 36.714371 36.714371 34.946915 36.714371 36.714371 36.714371 36.714371 36.714371 36.714371 36.714371 36.714371 36.714371 52.019455 52.019455 52.019455 90.869858 52.019455 52.019455 90.869858 90.869858 52.019455 38.850407 90.869858 90.869858 38.850407 38.850407 90.869858 45.868515 38.850407 38.850407 45.868515 45.868515 38.850407 45.868515 45.868515 45.868515 45.868515 45.868515 45.868515 50.458374 45.868515 45.868515 50.458374 50.458374 45.868515 95.692253 50.458374 50.458374 95.692253 95.692253 50.458374 45.233879 95.692253 95.692253 45.233879 45.233879 95.692253 45.233879 45.233879 45.233879 44.249695 44.249695 44.249695 44.249695 44.249695 44.249695 44.249695 44.249695 44.249695 44.249695 44.249695 44.249695 39.321754 39.321754 39.321754 39.321754 39.321754 39.321754 39.321754 39.321754 39.321754 40.750595 39.321754 39.321754 40.750595 40.750595 39.321754 78.383102 40.750595 40.750595 78.383102 78.383102 40.750595 37.632504 78.383102 78.383102 37.632504 37.632504 78.383102 45.025455 37.632504 37.632504 45.025455 45.025455 37.632504 90.193665 45.025455 45.025455 90.193665 90.193665 45.025455 45.168213 90.193665 90.193665 45.168213 45.168213 90.193665 45.168213 45.168213 45.168213 252.590912 252.625244 252.214630 252.625244 253.234650 252.214630 252.625244 249.906769 253.234650 249.906769 250.080322 253.234650 249.906769 250.706116 250.080322 250.706116 250.327057 250.080322 250.706116 250.854156 250.327057 250.854156 250.622864 250.327057 250.854156 232.535370 250.622864 232.535370 230.581238 250.622864 232.535370 107.567467 230.581238 107.567467 105.326408 230.581238 220.487259 223.240479 217.596283 223.240479 217.559967 217.596283 217.596283 217.559967 219.830353 217.559967 204.955353 219.830353 219.830353 204.955353 201.449417 204.955353 205.124847 201.449417 201.449417 205.124847 145.120255 205.124847 204.779022 145.120255 145.120255 204.779022 157.425079 204.779022 207.646545 157.425079 157.425079 207.646545 152.927216 207.646545 154.060333 152.927216 152.927216 154.060333 149.857147 154.060333 155.944962 149.857147 149.857147 155.944962 209.574875 155.944962 161.356201 209.574875 209.574875 161.356201 162.616302 161.356201 158.993011 162.616302 162.616302 158.993011 164.130951 158.993011 217.690750 164.130951 164.130951 217.690750 211.993713 217.690750 219.214462 211.993713 211.993713 219.214462 212.361847 219.214462 219.547638 212.361847 212.361847 219.547638 207.958115 219.547638 164.985443 207.958115 207.958115 164.985443 150.111450 164.985443 104.595512 150.111450 150.111450 104.595512 150.426071 104.595512 159.153778 150.426071 150.426071 159.153778 216.246140 159.153778 216.235031 216.246140 216.246140 216.235031 219.591980 216.235031 215.959412 219.591980 219.591980 215.959412 192.083710 215.959412 206.047073 192.083710 192.083710 206.047073 197.126007 206.047073 207.885620 197.126007 197.126007 207.885620 215.245636 207.885620 213.579803 215.245636 215.245636 213.579803 214.456085 213.579803 214.257904 214.456085 214.456085 214.257904 209.476120 214.257904 213.023621 209.476120 209.476120 213.023621 217.224518 213.023621 223.967819 217.224518 217.224518 223.967819 222.879288 223.967819 225.660126 222.879288 222.879288 225.660126 210.409561 225.660126 205.054199 210.409561 210.409561 205.054199 199.306015 205.054199 206.043610 199.306015 199.306015 206.043610 201.513657 206.043610 210.659729 201.513657 201.513657 210.659729 210.903717 210.659729 216.451416 210.903717 210.903717 216.451416 208.753662 216.451416 214.147369 208.753662 208.753662 214.147369 220.405151 214.147369 214.416779 220.405151 220.405151 214.416779 216.288086 214.416779 204.599380 216.288086 216.288086 204.599380 204.756104 204.599380 195.507538 204.756104 204.756104 195.507538 216.667267 195.507538 215.630920 216.667267 216.667267 215.630920 219.562607 215.630920 224.536865 219.562607 219.562607 224.536865 205.512054 224.536865 213.467880 205.512054 205.512054 213.467880 149.278473 213.467880 200.548615 149.278473 149.278473 200.548615 98.975021 200.548615 149.928909 98.975021 98.975021 149.928909 154.545624 149.928909 156.807587 154.545624 154.545624 156.807587 107.567467 156.807587 105.326408 107.567467 107.567467 105.326408 105.326408 107.567467 107.567467 105.326408 253.330414 252.138382 252.590912 252.138382 252.625244 252.590912 252.138382 248.417603 252.625244 248.417603 249.906769 252.625244 248.417603 249.274353 249.906769 249.274353 250.706116 249.906769 249.274353 251.631714 250.706116 251.631714 250.854156 250.706116 251.631714 236.386200 250.854156 236.386200 232.535370 250.854156 236.386200 110.196625 232.535370 110.196625 107.567467 232.535370 45.613148 221.839279 45.613148 45.613148 220.487259 221.839279 220.487259 217.596283 221.839279 221.839279 217.596283 222.699280 217.596283 219.830353 222.699280 222.699280 219.830353 205.213043 219.830353 201.449417 205.213043 205.213043 201.449417 148.600739 201.449417 145.120255 148.600739 148.600739 145.120255 161.556183 145.120255 157.425079 161.556183 161.556183 157.425079 207.004639 157.425079 152.927216 207.004639 207.004639 152.927216 196.193420 152.927216 149.857147 196.193420 196.193420 149.857147 203.415375 149.857147 209.574875 203.415375 203.415375 209.574875 157.923355 209.574875 162.616302 157.923355 157.923355 162.616302 157.897156 162.616302 164.130951 157.897156 157.897156 164.130951 204.514069 164.130951 211.993713 204.514069 204.514069 211.993713 211.584869 211.993713 212.361847 211.584869 211.584869 212.361847 212.906570 212.361847 207.958115 212.906570 212.906570 207.958115 198.873047 207.958115 150.111450 198.873047 198.873047 150.111450 201.359680 150.111450 150.426071 201.359680 201.359680 150.426071 216.370590 150.426071 216.246140 216.370590 216.370590 216.246140 214.179688 216.246140 219.591980 214.179688 214.179688 219.591980 203.617157 219.591980 192.083710 203.617157 203.617157 192.083710 209.664429 192.083710 197.126007 209.664429 209.664429 197.126007 220.753372 197.126007 215.245636 220.753372 220.753372 215.245636 169.376251 215.245636 214.456085 169.376251 169.376251 214.456085 161.458099 214.456085 209.476120 161.458099 161.458099 209.476120 213.717667 209.476120 217.224518 213.717667 213.717667 217.224518 223.202484 217.224518 222.879288 223.202484 223.202484 222.879288 228.927032 222.879288 210.409561 228.927032 228.927032 210.409561 208.749588 210.409561 199.306015 208.749588 208.749588 199.306015 201.943390 199.306015 201.513657 201.943390 201.943390 201.513657 221.141571 201.513657 210.903717 221.141571 221.141571 210.903717 226.277573 210.903717 208.753662 226.277573 226.277573 208.753662 226.805984 208.753662 220.405151 226.805984 226.805984 220.405151 219.912415 220.405151 2